/*--------------------------------*- C++ -*----------------------------------*\
| =========                 |                                                 |
| \\      /  F ield         | OpenFOAM: The Open Source CFD Toolbox           |
|  \\    /   O peration     | Version:  2.2.x                                 |
|   \\  /    A nd           | Web:      www.OpenFOAM.org                      |
|    \\/     M anipulation  |                                                 |
\*---------------------------------------------------------------------------*/
FoamFile
{
    version     2.0;
    format      ascii;
    class       volVectorField;
    location    "0";
    object      U;
    defaultFaces
    {    type empty;
    }
}
// * * * * * * * * * * * * * * * * * * * * * * * * * * * * * * * * * * * * * //
yVelocity 1.0;

dimensions      [0 1 -1 0 0 0 0];

internalField   uniform (0 $yVelocity 0);

boundaryField
{
    left
    {
        type            slip;
    }
    right
    {
        type            slip;
    }
    top
    {
        type            zeroGradient;
    }
    bottom
    {
        type            fixedValue;
        value           uniform (0 $yVelocity 0);
    }

    defaultFaces 
    {
        type empty;
    }
}


// ************************************************************************* //
